LAMMPS DATA file

64 atoms
0 bonds
0 angles
0 dihedrals
0 impropers

1 atom types
0 bond types
0 angle types

0.0 12.990503 xlo xhi
0.0 11.250148 ylo yhi
0.0 15.845291 zlo zhi

Masses

1 73

Atoms

1 1 10.59125 10.59066 0.01705 0 0 0
2 1 2.66355 2.56976 2.70172 0 0 0
3 1 1.28225 2.66379 0.00075 0 0 0
4 1 3.97426 2.68113 0.01584 0 0 0
5 1 0.04505 1.26937 2.60223 0 0 0
6 1 0.00712 3.91022 2.683 0 0 0
7 1 2.72684 10.52432 1.35392 0 0 0
8 1 2.65771 10.58165 3.96524 0 0 0
9 1 5.24942 0.01366 0.0772 0 0 0
10 1 7.94389 2.70276 2.58372 0 0 0
11 1 6.56897 2.63238 10.53781 0 0 0
12 1 9.25697 2.71824 0.03107 0 0 0
13 1 5.2811 1.27529 2.68805 0 0 0
14 1 5.37617 4.03137 2.57831 0 0 0
15 1 7.91828 10.57185 1.29744 0 0 0
16 1 8.00764 10.55181 3.96506 0 0 0
17 1 0.0118 5.32177 10.55352 0 0 0
18 1 2.71308 7.96819 2.68219 0 0 0
19 1 1.27335 7.87586 10.56985 0 0 0
20 1 3.92708 7.97831 10.57169 0 0 0
21 1 10.58762 6.54896 2.70874 0 0 0
22 1 0.00758 9.30089 2.66982 0 0 0
23 1 2.61456 5.29021 1.37992 0 0 0
24 1 2.62758 5.2723 4.00316 0 0 0
25 1 10.5382 10.57206 5.35381 0 0 0
26 1 2.69884 2.72252 7.98246 0 0 0
27 1 1.28389 2.59056 5.26081 0 0 0
28 1 4.01712 2.69857 5.29807 0 0 0
29 1 0.0291 1.26201 7.95665 0 0 0
30 1 0.01323 4.01408 7.91542 0 0 0
31 1 2.6335 0.07389 6.60337 0 0 0
32 1 2.62747 0.02086 9.22021 0 0 0
33 1 5.37311 5.37921 0.00104 0 0 0
34 1 7.9566 8.01813 2.65235 0 0 0
35 1 6.57317 7.93825 10.57796 0 0 0
36 1 9.2694 7.88151 10.53712 0 0 0
37 1 5.22009 6.55334 2.65222 0 0 0
38 1 5.33963 9.271 2.62989 0 0 0
39 1 8.02119 5.29672 1.35359 0 0 0
40 1 7.94827 5.36972 3.97268 0 0 0
41 1 5.3297 10.56835 5.37217 0 0 0
42 1 7.91532 2.64246 8.00295 0 0 0
43 1 6.62199 2.68295 5.3771 0 0 0
44 1 9.2514 2.68433 5.35239 0 0 0
45 1 5.32938 1.27255 7.97134 0 0 0
46 1 5.30418 3.93812 7.93568 0 0 0
47 1 7.95987 10.54938 6.61642 0 0 0
48 1 7.87538 0.02651 9.23341 0 0 0
49 1 0.01871 5.23215 5.21873 0 0 0
50 1 2.58005 8.01801 8.00091 0 0 0
51 1 1.35622 7.90716 5.21911 0 0 0
52 1 3.91664 8.00527 5.23273 0 0 0
53 1 0.05597 6.54262 7.99991 0 0 0
54 1 0.05678 9.22328 7.97883 0 0 0
55 1 2.66025 5.35371 6.64491 0 0 0
56 1 2.64384 5.23012 9.2296 0 0 0
57 1 5.34418 5.35604 5.295 0 0 0
58 1 7.96554 7.96325 7.88581 0 0 0
59 1 6.67445 7.93954 5.26624 0 0 0
60 1 9.32253 7.94305 5.27672 0 0 0
61 1 5.37998 6.62136 8.01604 0 0 0
62 1 5.23732 9.22012 7.8725 0 0 0
63 1 7.90914 5.35867 6.63564 0 0 0
64 1 7.8945 5.29107 9.20052 0 0 0
