LAMMPS DATA file

64 atoms
0 bonds
0 angles
0 dihedrals
0 impropers

1 atom types
0 bond types
0 angle types

0.0 12.990503 xlo xhi
0.0 11.250148 ylo yhi
0.0 15.845291 zlo zhi

Masses

1 73

Atoms

1 1 10.59947 10.59661 10.52413 0 0 0
2 1 2.59454 2.65092 2.68446 0 0 0
3 1 1.33041 2.674 10.58143 0 0 0
4 1 3.95295 2.58315 10.54506 0 0 0
5 1 10.59883 1.31774 2.66978 0 0 0
6 1 10.57967 3.96662 2.60593 0 0 0
7 1 2.59254 0.00678 1.31972 0 0 0
8 1 2.59169 0.03133 3.90382 0 0 0
9 1 5.37939 0.04023 0.07113 0 0 0
10 1 7.94984 2.73234 2.65636 0 0 0
11 1 6.7035 2.71875 10.57105 0 0 0
12 1 9.33869 2.66536 10.5534 0 0 0
13 1 5.38144 1.37363 2.59678 0 0 0
14 1 5.27263 3.99656 2.66272 0 0 0
15 1 7.96657 0.06435 1.30009 0 0 0
16 1 7.99235 0.04847 3.89505 0 0 0
17 1 0.0218 5.29659 10.5698 0 0 0
18 1 2.73175 8.00138 2.71285 0 0 0
19 1 1.31806 7.96372 10.54256 0 0 0
20 1 3.91844 7.96217 10.56452 0 0 0
21 1 0.03602 6.66478 2.64422 0 0 0
22 1 10.5258 9.31439 2.65344 0 0 0
23 1 2.66149 5.31748 1.25965 0 0 0
24 1 2.71043 5.3142 3.96356 0 0 0
25 1 0.01714 0.02895 5.25397 0 0 0
26 1 2.64597 2.62331 8.00147 0 0 0
27 1 1.34375 2.63266 5.31467 0 0 0
28 1 4.01969 2.72066 5.33483 0 0 0
29 1 0.05334 1.28072 7.94153 0 0 0
30 1 10.56225 3.9163 7.87893 0 0 0
31 1 2.67491 10.58095 6.65598 0 0 0
32 1 2.61935 0.04143 9.225 0 0 0
33 1 5.37858 5.37062 0.02738 0 0 0
34 1 8.01211 7.93604 2.73 0 0 0
35 1 6.6093 7.90613 0.06492 0 0 0
36 1 9.28311 7.87808 10.53355 0 0 0
37 1 5.22651 6.57935 2.58919 0 0 0
38 1 5.36331 9.19414 2.65024 0 0 0
39 1 7.9726 5.27207 1.2508 0 0 0
40 1 7.89187 5.26738 3.98139 0 0 0
41 1 5.30786 0.02387 5.37311 0 0 0
42 1 7.90554 2.64139 7.96721 0 0 0
43 1 6.54626 2.62801 5.34703 0 0 0
44 1 9.30386 2.63489 5.25676 0 0 0
45 1 5.34196 1.30641 7.91047 0 0 0
46 1 5.33435 4.01755 7.93742 0 0 0
47 1 7.87923 10.59827 6.57191 0 0 0
48 1 7.91667 0.07787 9.29291 0 0 0
49 1 0.00407 5.21804 5.29085 0 0 0
50 1 2.64244 8.01096 7.89122 0 0 0
51 1 1.27073 7.96757 5.24059 0 0 0
52 1 4.05652 7.94422 5.24628 0 0 0
53 1 10.55504 6.5449 8.02866 0 0 0
54 1 10.54757 9.32356 7.97367 0 0 0
55 1 2.57132 5.31124 6.54943 0 0 0
56 1 2.70552 5.36844 9.25923 0 0 0
57 1 5.37917 5.32156 5.36422 0 0 0
58 1 7.96636 7.91391 7.89315 0 0 0
59 1 6.60266 8.02328 5.30029 0 0 0
60 1 9.34959 7.99431 5.26212 0 0 0
61 1 5.27917 6.54337 7.93235 0 0 0
62 1 5.31647 9.3383 7.99422 0 0 0
63 1 7.90244 5.24771 6.59897 0 0 0
64 1 7.93795 5.34891 9.25032 0 0 0
