LAMMPS DATA file

64 atoms
0 bonds
0 angles
0 dihedrals
0 impropers

1 atom types
0 bond types
0 angle types

0.0 12.990503 xlo xhi
0.0 11.250148 ylo yhi
0.0 15.845291 zlo zhi

Masses

1 73

Atoms

1 1 0.04908 0.00115 10.57826 0 0 0
2 1 2.61654 2.71455 2.72901 0 0 0
3 1 1.39595 2.61446 10.52477 0 0 0
4 1 3.90381 2.6756 0.06766 0 0 0
5 1 0.05742 1.31249 2.58872 0 0 0
6 1 0.05697 4.05163 2.67585 0 0 0
7 1 2.58852 10.55529 1.39238 0 0 0
8 1 2.6599 0.00552 4.01733 0 0 0
9 1 5.26427 10.58342 10.56227 0 0 0
10 1 7.89236 2.6016 2.71779 0 0 0
11 1 6.6321 2.63976 10.53024 0 0 0
12 1 9.21243 2.59505 0.06665 0 0 0
13 1 5.30011 1.36599 2.71012 0 0 0
14 1 5.34341 4.00547 2.68181 0 0 0
15 1 8.03029 10.56076 1.30843 0 0 0
16 1 7.92561 0.06228 3.97753 0 0 0
17 1 0.03512 5.22736 0.04735 0 0 0
18 1 2.66581 7.98939 2.66641 0 0 0
19 1 1.29579 7.92632 10.58792 0 0 0
20 1 3.93283 7.88849 0.0809 0 0 0
21 1 10.5959 6.57196 2.63734 0 0 0
22 1 10.56437 9.25635 2.72679 0 0 0
23 1 2.72037 5.31366 1.24606 0 0 0
24 1 2.69611 5.37769 3.9661 0 0 0
25 1 0.07372 10.52817 5.29093 0 0 0
26 1 2.61857 2.70351 8.02211 0 0 0
27 1 1.31355 2.72095 5.3785 0 0 0
28 1 3.89644 2.57087 5.2537 0 0 0
29 1 10.58888 1.30214 7.86943 0 0 0
30 1 0.04887 4.01408 7.90126 0 0 0
31 1 2.72928 0.06945 6.66193 0 0 0
32 1 2.58101 0.04872 9.23137 0 0 0
33 1 5.34108 5.36912 0.05283 0 0 0
34 1 7.88186 7.9551 2.72317 0 0 0
35 1 6.55598 7.99717 10.53185 0 0 0
36 1 9.31791 7.96193 0.00269 0 0 0
37 1 5.24453 6.70165 2.62389 0 0 0
38 1 5.32205 9.27675 2.72023 0 0 0
39 1 7.86861 5.30945 1.31803 0 0 0
40 1 7.92333 5.29865 3.91698 0 0 0
41 1 5.25271 10.51825 5.34383 0 0 0
42 1 8.0222 2.60801 7.87152 0 0 0
43 1 6.60212 2.59356 5.37931 0 0 0
44 1 9.30602 2.68963 5.26783 0 0 0
45 1 5.34458 1.3199 7.96406 0 0 0
46 1 5.27345 3.97769 7.88365 0 0 0
47 1 7.90209 0.06243 6.6921 0 0 0
48 1 7.9791 10.56722 9.28911 0 0 0
49 1 0.08155 5.37803 5.24262 0 0 0
50 1 2.69772 8.006 7.99419 0 0 0
51 1 1.38725 7.96453 5.37281 0 0 0
52 1 3.9138 7.92522 5.25427 0 0 0
53 1 10.54558 6.64409 7.90011 0 0 0
54 1 0.0414 9.23222 7.94529 0 0 0
55 1 2.6176 5.26509 6.55154 0 0 0
56 1 2.67779 5.27183 9.34564 0 0 0
57 1 5.37167 5.22358 5.28383 0 0 0
58 1 7.97831 7.95033 7.98746 0 0 0
59 1 6.58772 7.97118 5.22845 0 0 0
60 1 9.29703 7.96398 5.22074 0 0 0
61 1 5.35894 6.66603 8.02645 0 0 0
62 1 5.25491 9.2658 7.91135 0 0 0
63 1 7.86723 5.29649 6.61035 0 0 0
64 1 8.01927 5.21862 9.29005 0 0 0
