LAMMPS DATA file

64 atoms
0 bonds
0 angles
0 dihedrals
0 impropers

1 atom types
0 bond types
0 angle types

0.0 12.990503 xlo xhi
0.0 11.250148 ylo yhi
0.0 15.845291 zlo zhi

Masses

1 73

Atoms

1 1 0.03525 10.52946 0.01429 0 0 0
2 1 2.67988 2.6352 2.61064 0 0 0
3 1 1.30583 2.57403 10.55611 0 0 0
4 1 4.00357 2.65046 10.56488 0 0 0
5 1 10.52633 1.38198 2.61375 0 0 0
6 1 10.54339 3.93177 2.72703 0 0 0
7 1 2.58523 10.55385 1.26507 0 0 0
8 1 2.68419 10.52194 4.02925 0 0 0
9 1 5.29632 0.02098 0.06019 0 0 0
10 1 7.9287 2.71315 2.57282 0 0 0
11 1 6.67221 2.56974 0.00085 0 0 0
12 1 9.35654 2.72035 0.02716 0 0 0
13 1 5.28199 1.31545 2.71612 0 0 0
14 1 5.26218 3.92161 2.73258 0 0 0
15 1 7.88956 10.53727 1.30155 0 0 0
16 1 7.90476 0.00491 4.03502 0 0 0
17 1 0.01924 5.23985 0.02933 0 0 0
18 1 2.63713 7.91332 2.57939 0 0 0
19 1 1.37591 7.98252 0.01161 0 0 0
20 1 3.99074 7.99253 0.04105 0 0 0
21 1 0.06165 6.69839 2.59091 0 0 0
22 1 0.07693 9.27396 2.65088 0 0 0
23 1 2.59233 5.37207 1.32243 0 0 0
24 1 2.576 5.32148 3.95475 0 0 0
25 1 10.57478 0.07838 5.30752 0 0 0
26 1 2.68594 2.63787 8.02554 0 0 0
27 1 1.24534 2.6968 5.22637 0 0 0
28 1 3.93645 2.66917 5.2391 0 0 0
29 1 10.54417 1.38182 8.01183 0 0 0
30 1 0.00692 3.97458 7.93648 0 0 0
31 1 2.65183 10.59292 6.70102 0 0 0
32 1 2.70713 0.0237 9.32486 0 0 0
33 1 5.32479 5.24418 0.01275 0 0 0
34 1 7.97361 7.99989 2.66237 0 0 0
35 1 6.68168 8.00545 10.53048 0 0 0
36 1 9.25988 8.00096 10.54122 0 0 0
37 1 5.36822 6.70209 2.70369 0 0 0
38 1 5.22169 9.20816 2.62305 0 0 0
39 1 7.90622 5.28573 1.40537 0 0 0
40 1 7.91678 5.27023 4.0071 0 0 0
41 1 5.35908 0.08115 5.27632 0 0 0
42 1 8.00681 2.60911 7.87611 0 0 0
43 1 6.63107 2.65234 5.3649 0 0 0
44 1 9.21464 2.71799 5.26365 0 0 0
45 1 5.22432 1.25125 8.02611 0 0 0
46 1 5.22168 3.92029 7.91312 0 0 0
47 1 8.01588 0.04144 6.68445 0 0 0
48 1 7.96204 10.55369 9.32548 0 0 0
49 1 0.01039 5.30368 5.2336 0 0 0
50 1 2.5862 7.96502 7.96459 0 0 0
51 1 1.28578 7.88946 5.26227 0 0 0
52 1 3.96511 7.98863 5.30323 0 0 0
53 1 0.00505 6.67243 8.01234 0 0 0
54 1 10.5258 9.23159 7.95484 0 0 0
55 1 2.60834 5.24378 6.55963 0 0 0
56 1 2.60865 5.35101 9.24068 0 0 0
57 1 5.34566 5.33553 5.26912 0 0 0
58 1 8.01116 7.98477 7.98864 0 0 0
59 1 6.61332 7.98663 5.33587 0 0 0
60 1 9.34421 7.88519 5.33887 0 0 0
61 1 5.30405 6.66664 7.973 0 0 0
62 1 5.3561 9.34104 7.93015 0 0 0
63 1 7.87231 5.36354 6.69962 0 0 0
64 1 7.98446 5.25368 9.3376 0 0 0
