LAMMPS data file via write_data, version 29 Oct 2020, timestep = 1

91 atoms
1 atom types

0.0 13.0 xlo xhi
0.0 13.0 ylo yhi
0.0 13.0 zlo zhi

Masses

1 22.989769

Pair Coeffs # zero

1

Atoms # atomic

1 1 0.0 0.0 0.0 0 0 0
2 1 2.14 2.14 2.14 0 0 0
3 1 4.28 0.0 0.0 0 0 0
4 1 6.42 2.14 2.14 0 0 0
8 1 0.0 4.28 0.0 0 0 0
9 1 2.14 6.42 2.14 0 0 0
10 1 4.28 4.28 0.0 0 0 0
11 1 6.42 6.42 2.14 0 0 0
26 1 0.0 0.0 4.28 0 0 0
27 1 2.14 2.14 6.42 0 0 0
28 1 4.28 0.0 4.28 0 0 0
29 1 6.42 2.14 6.42 0 0 0
33 1 0.0 4.28 4.28 0 0 0
34 1 2.14 6.42 6.42 0 0 0
35 1 4.28 4.28 4.28 0 0 0
36 1 6.42 6.42 6.42 0 0 0
5 1 8.56 0.0 0.0 0 0 0
6 1 10.700000000000001 2.14 2.14 0 0 0
7 1 12.84 0.0 0.0 0 0 0
12 1 8.56 4.28 0.0 0 0 0
13 1 10.700000000000001 6.42 2.14 0 0 0
14 1 12.84 4.28 0.0 0 0 0
30 1 8.56 0.0 4.28 0 0 0
31 1 10.700000000000001 2.14 6.42 0 0 0
32 1 12.84 0.0 4.28 0 0 0
37 1 8.56 4.28 4.28 0 0 0
38 1 10.700000000000001 6.42 6.42 0 0 0
39 1 12.84 4.28 4.28 0 0 0
15 1 0.0 8.56 0.0 0 0 0
16 1 2.14 10.700000000000001 2.14 0 0 0
17 1 4.28 8.56 0.0 0 0 0
18 1 6.42 10.700000000000001 2.14 0 0 0
22 1 0.0 12.84 0.0 0 0 0
23 1 4.28 12.84 0.0 0 0 0
40 1 0.0 8.56 4.28 0 0 0
41 1 2.14 10.700000000000001 6.42 0 0 0
42 1 4.28 8.56 4.28 0 0 0
43 1 6.42 10.700000000000001 6.42 0 0 0
47 1 0.0 12.84 4.28 0 0 0
48 1 4.28 12.84 4.28 0 0 0
19 1 8.56 8.56 0.0 0 0 0
20 1 10.700000000000001 10.700000000000001 2.14 0 0 0
21 1 12.84 8.56 0.0 0 0 0
24 1 8.56 12.84 0.0 0 0 0
25 1 12.84 12.84 0.0 0 0 0
44 1 8.56 8.56 4.28 0 0 0
45 1 10.700000000000001 10.700000000000001 6.42 0 0 0
46 1 12.84 8.56 4.28 0 0 0
49 1 8.56 12.84 4.28 0 0 0
50 1 12.84 12.84 4.28 0 0 0
51 1 0.0 0.0 8.56 0 0 0
52 1 2.14 2.14 10.700000000000001 0 0 0
53 1 4.28 0.0 8.56 0 0 0
54 1 6.42 2.14 10.700000000000001 0 0 0
58 1 0.0 4.28 8.56 0 0 0
59 1 2.14 6.42 10.700000000000001 0 0 0
60 1 4.28 4.28 8.56 0 0 0
61 1 6.42 6.42 10.700000000000001 0 0 0
76 1 0.0 0.0 12.84 0 0 0
77 1 4.28 0.0 12.84 0 0 0
80 1 0.0 4.28 12.84 0 0 0
81 1 4.28 4.28 12.84 0 0 0
55 1 8.56 0.0 8.56 0 0 0
56 1 10.700000000000001 2.14 10.700000000000001 0 0 0
57 1 12.84 0.0 8.56 0 0 0
62 1 8.56 4.28 8.56 0 0 0
63 1 10.700000000000001 6.42 10.700000000000001 0 0 0
64 1 12.84 4.28 8.56 0 0 0
78 1 8.56 0.0 12.84 0 0 0
79 1 12.84 0.0 12.84 0 0 0
82 1 8.56 4.28 12.84 0 0 0
83 1 12.84 4.28 12.84 0 0 0
65 1 0.0 8.56 8.56 0 0 0
66 1 2.14 10.700000000000001 10.700000000000001 0 0 0
67 1 4.28 8.56 8.56 0 0 0
68 1 6.42 10.700000000000001 10.700000000000001 0 0 0
72 1 0.0 12.84 8.56 0 0 0
73 1 4.28 12.84 8.56 0 0 0
84 1 0.0 8.56 12.84 0 0 0
85 1 4.28 8.56 12.84 0 0 0
88 1 0.0 12.84 12.84 0 0 0
89 1 4.28 12.84 12.84 0 0 0
69 1 8.56 8.56 8.56 0 0 0
70 1 10.700000000000001 10.700000000000001 10.700000000000001 0 0 0
71 1 12.84 8.56 8.56 0 0 0
74 1 8.56 12.84 8.56 0 0 0
75 1 12.84 12.84 8.56 0 0 0
86 1 8.56 8.56 12.84 0 0 0
87 1 12.84 8.56 12.84 0 0 0
90 1 8.56 12.84 12.84 0 0 0
91 1 12.84 12.84 12.84 0 0 0

Velocities

1 0.0 0.0 0.0
2 0.0 0.0 0.0
3 0.0 0.0 0.0
4 0.0 0.0 0.0
8 0.0 0.0 0.0
9 0.0 0.0 0.0
10 0.0 0.0 0.0
11 0.0 0.0 0.0
26 0.0 0.0 0.0
27 0.0 0.0 0.0
28 0.0 0.0 0.0
29 0.0 0.0 0.0
33 0.0 0.0 0.0
34 0.0 0.0 0.0
35 0.0 0.0 0.0
36 0.0 0.0 0.0
5 0.0 0.0 0.0
6 0.0 0.0 0.0
7 0.0 0.0 0.0
12 0.0 0.0 0.0
13 0.0 0.0 0.0
14 0.0 0.0 0.0
30 0.0 0.0 0.0
31 0.0 0.0 0.0
32 0.0 0.0 0.0
37 0.0 0.0 0.0
38 0.0 0.0 0.0
39 0.0 0.0 0.0
15 0.0 0.0 0.0
16 0.0 0.0 0.0
17 0.0 0.0 0.0
18 0.0 0.0 0.0
22 0.0 0.0 0.0
23 0.0 0.0 0.0
40 0.0 0.0 0.0
41 0.0 0.0 0.0
42 0.0 0.0 0.0
43 0.0 0.0 0.0
47 0.0 0.0 0.0
48 0.0 0.0 0.0
19 0.0 0.0 0.0
20 0.0 0.0 0.0
21 0.0 0.0 0.0
24 0.0 0.0 0.0
25 0.0 0.0 0.0
44 0.0 0.0 0.0
45 0.0 0.0 0.0
46 0.0 0.0 0.0
49 0.0 0.0 0.0
50 0.0 0.0 0.0
51 0.0 0.0 0.0
52 0.0 0.0 0.0
53 0.0 0.0 0.0
54 0.0 0.0 0.0
58 0.0 0.0 0.0
59 0.0 0.0 0.0
60 0.0 0.0 0.0
61 0.0 0.0 0.0
76 0.0 0.0 0.0
77 0.0 0.0 0.0
80 0.0 0.0 0.0
81 0.0 0.0 0.0
55 0.0 0.0 0.0
56 0.0 0.0 0.0
57 0.0 0.0 0.0
62 0.0 0.0 0.0
63 0.0 0.0 0.0
64 0.0 0.0 0.0
78 0.0 0.0 0.0
79 0.0 0.0 0.0
82 0.0 0.0 0.0
83 0.0 0.0 0.0
65 0.0 0.0 0.0
66 0.0 0.0 0.0
67 0.0 0.0 0.0
68 0.0 0.0 0.0
72 0.0 0.0 0.0
73 0.0 0.0 0.0
84 0.0 0.0 0.0
85 0.0 0.0 0.0
88 0.0 0.0 0.0
89 0.0 0.0 0.0
69 0.0 0.0 0.0
70 0.0 0.0 0.0
71 0.0 0.0 0.0
74 0.0 0.0 0.0
75 0.0 0.0 0.0
86 0.0 0.0 0.0
87 0.0 0.0 0.0
90 0.0 0.0 0.0
91 0.0 0.0 0.0
