98
Lattice="10.30128951097038 0.0 0.0 0.0 10.405909407243795 -1.7523420574216604 0.0 0.0 30.565048819605813" Properties=species:S:1:pos:R:3:forces:R:3 energy=-850.7020822245177 stress="-0.017357769715345632 -0.0008566410549810885 -0.0012789935579728363 -0.0008566410549810885 -0.01261089484476447 0.0035982596939666514 -0.0012789935579728363 0.0035982596939666514 -0.012964385526616258" free_energy=-86699.14082145914 pbc="T T T"
Hf       2.94417550       1.44605588       3.42710201      -2.07846128       0.75067342      -1.87768667
Hf       0.37042922       1.06698284       1.23206925       1.40805333      -2.03776612       0.04216403
Hf       2.29674976       3.65316690       0.76176800       0.37214970      -3.36727199      -0.70338955
Hf       4.97622538       4.08984165       2.80035920      -2.09946900      -0.08751032       4.87441333
O        1.39739877      -0.14681089       2.97975821      -0.54687981       1.50213565      -0.99299398
O        3.91981578       2.33184316       1.72153811      -0.46117415       2.16133591      -0.41367584
O        3.96043583       5.01121886       1.44683362      -3.42567126       1.77679118      -3.53933690
O        1.29481131       2.67120781       2.37262802      -0.27118119       0.90153855      -0.43059962
O        3.41456225       3.47010372       4.25556159       0.67012641      -1.35902780      -2.05334109
O        0.96489604       4.24050213      -0.43911616      -1.05440092       1.82097379       0.02652530
O        1.72070474       1.68393943       0.00140304      -0.03298674       1.64873739       0.80983965
O        4.14776375       0.66124904       4.59863677       3.54400526      -0.22404773       2.74550675
Hf       2.87356222       1.52756689       8.56373083       0.56080182       1.04520537       0.26783824
Hf       0.32582773       1.11266700       6.37629321       1.36382496      -2.47480069      -1.91237033
Hf       2.43309453       3.63535700       6.01353124      -0.69140332       1.69315191      -5.16846217
Hf       4.88292866       4.10328381       8.12417790      -2.39846027       1.17261999       1.29264500
O        1.44794616      -0.01980629       7.92989661      -1.37959096       1.46222442       1.16708260
O        3.94250231       2.43286378       6.91421625      -0.59283931       1.64571505       0.82682435
O        3.91631849       5.10409735       6.39438640      -2.95677069      -1.91176072       3.32649224
O        1.44945324       2.73888110       7.43871258      -2.76765834      -1.87453912       2.03853591
O        3.33439865       3.43171699       9.43626963       1.44922312      -0.26090629      -2.89042363
O        0.77875585       4.59446989       4.80928577       1.26254895      -4.09935814      -1.63923767
O        1.65700980       1.55035746       4.94559656      -0.47142719       2.00094998       2.72490681
O        4.19438120       0.88932062       9.79134169       0.20465338      -1.32283309       0.51008141
Hf       2.66434921       6.56413208       2.34789772       4.04339474       3.71306634       5.96479761
Hf       0.26425177       6.27709694       0.32730596      -0.69120638      -0.26142257      -3.52246558
Hf       2.20298330       8.75948933      -0.01713723       1.38350238       3.15495235      -1.10803696
Hf       5.03398677       9.28412473       2.17873097      -3.91043656       0.79407210       1.99209741
O        1.20992869       5.39233052       1.70488711       0.43572460      -3.19761878       2.65863534
O        4.00931235       7.86615738       0.98267400      -0.80174890      -2.52016189      -1.31487013
O        3.86186382      10.41232814       0.39871862       0.02489265      -2.31177553      -0.12572977
O        1.18737505       7.79773725       1.39453192      -1.40499552      -0.21419038       1.85574179
O        3.30557461       8.53537447       3.31993770       1.41415096       0.09746358      -1.50182481
O        0.87221121       9.60237998      -1.15969960      -0.58074150       0.32965656      -0.27201243
O        1.72832975       6.97968506      -0.80293298      -0.48538648      -0.92728558      -0.14412833
O        4.23348696       6.03856337       3.63581335       0.03777413      -0.11020828      -0.50011787
Hf       2.84489682       6.73334518       7.79701204       1.53694299      -1.75349081      -1.11672703
Hf       0.11632216       6.35227473       5.59804933       3.18909506      -3.34367441      -3.91827869
Hf       2.32806568       8.73507321       5.10349884       1.14828861       1.35531127      -4.20999605
Hf       4.65254856       9.48303233       7.24757422       5.01357557       0.77789060      -2.06868441
O        1.27568285       5.11535563       6.88033325       0.95791025       2.73668272       3.56017672
O        3.81155129       7.78967649       6.14228603       1.32619198      -2.77645511      -1.85023808
O        3.79131028      10.39905184       5.66658690       0.36829922      -0.59775449      -0.50378787
O        1.22984829       7.87764126       6.56452146      -1.94771452      -0.80750946       2.34496127
O        3.38537149       8.48929990       8.09524879      -3.09304919       1.44045180       5.61099993
O        0.84195324       9.48000684       3.81518867      -1.32171620      -0.13034053       0.66416017
O        1.74275671       6.91194790       4.29752698      -0.93527786      -0.35600806      -0.32004218
O        4.29805441       6.09800491       8.92377326      -0.22281900      -1.57018376      -1.43880193
Hf       7.93208564       1.55758073       3.46489744       1.64640360      -0.94253814      -0.12822657
Hf       5.57271846       0.96917004       1.14336485      -1.36462817       1.85991340       0.95362988
Hf       7.41878783       3.76448779       0.93808796      -2.32415410      -2.94561802      -4.57257893
Hf      10.07464775       3.99506155       2.80504525       0.27210268       3.34348415       4.61172038
O        6.53001523       0.09325139       3.04889944       0.13438565       0.50301731      -1.36634850
O        9.04801300       2.51129368       1.86027279      -0.00087418       0.32249450      -0.03498629
O        8.78484389       5.15535347       1.35342874       4.70546923       0.68488815      -0.49657232
O        6.22350346       2.68873339       2.26665763       2.94968113      -0.48478227       2.35074779
O        8.60988988       3.47107204       4.30610693       0.75945142      -1.18974893      -3.04507035
O        5.97716975       4.34899429      -0.38611190       0.48998001       2.12434056       1.56015980
O        6.98420218       1.92466409       0.22642337       0.72767850      -0.79232863      -1.48306218
O        9.54579191       0.75286974       4.61245079      -2.46091262       0.52490485      -0.68486321
Hf       7.92273618       1.53808039       8.51306497       4.42508734       0.49185563       2.45770594
Hf       5.44359283       1.23951090       6.28114947      -3.18408784      -4.35111413       2.15417590
Hf       7.61372737       3.67140740       5.89121373      -2.68652564       0.94747800       0.54117813
Hf      10.08954754       4.15307200       8.09158462      -2.48735976      -0.11533069       2.16994422
O        6.41267634       0.30314532       7.85324369       0.98096122      -1.65533844       0.14648989
O        9.17130398       2.45327167       6.85264338      -1.34833561       0.33933342       0.89613898
O        8.94027284       5.01030514       6.70885592       0.09357119      -0.02808442      -2.23036206
O        6.24019566       2.59432311       7.73915381       0.72256998       2.63735818      -0.58332469
O        8.55182872       3.47079493       9.24954742       0.66936768      -0.20333492      -1.81437531
O        5.89382408       4.35635044       4.58728062       1.61114143      -0.92052538       0.78991745
O        6.84506884       1.74223031       5.18959702       2.57192951       1.50662017      -1.36413298
O        9.36452733       0.94875185       9.78671847      -0.40119622      -1.25348581      -1.65541068
Hf       7.83200243       6.71764292       2.56007544       2.61703129       0.22584467       3.74883476
Hf       5.47603674       6.43585630       0.32629438      -0.15650331      -3.43763717       0.73948809
Hf       7.49844667       8.88931957       0.01578364      -1.30493050       2.29226420      -0.89575640
Hf       9.95626739       9.22996158       2.13902877       2.99190610       3.11957423       1.49720171
O        6.68127422       5.33138500       1.92053739      -5.77906858      -0.11480644       0.57166525
O        8.92002359       7.87348160       0.97767685       2.34141186      -2.90818996      -0.43751563
O        8.95392514      10.45691727       0.45978982      -0.33791443      -1.19143326       0.15512108
O        6.42932425       7.99176204       1.51144125       0.28312782      -1.53244896       0.75033763
O        8.43060212       8.52174896       3.31174508       2.22712298       0.71800961      -1.46735043
O        6.15085155       9.67764635      -1.19226404       0.58876488      -1.74261659      -0.92493585
O        6.90578773       7.08525680      -0.61821129       1.31836400      -0.10906311      -2.50522147
O        9.51799388       5.83091410       3.85850869      -2.60411767       1.89339456      -3.07001802
Hf       8.08121534       6.72278120       7.55573111      -5.23579808       1.79697717       3.80517200
Hf       5.21295623       6.17723212       5.46419747       2.16370672       3.20224985      -3.04802094
Hf       7.64152643       8.86143192       5.01367366      -4.68582420       0.74278630       2.34154941
Hf      10.01651654       9.23129251       7.14670811      -2.24297666       2.21296983       4.82560839
O        6.39299984       5.18850921       6.83595014       1.26189640       0.02301214       2.34893825
O        8.84330680       7.60922571       6.06714636       3.43350875       0.79918988      -1.30263605
O        9.12526855      10.23222039       5.77646355      -1.76559222       0.44536392      -2.49902126
O        6.41052131       8.06519478       6.70096101      -1.00782770      -0.21173343       0.08585376
O        8.47396437       8.66151479       8.51040930       2.24380250      -0.91825304      -2.96997305
O        6.11515552       9.38722519       3.88157327      -1.58282459       1.67187577      -0.50913782
O        6.89612306       6.83835446       4.41844043       0.75326946       0.41445412      -1.19066270
O        9.43859257       6.18077577       8.71523293       2.88591880      -1.87897402       1.01161519
O        5.15064476       5.20295367      14.70549665      -1.75789614      -0.00006608      -1.30893396
O        6.10897063       5.20295367      15.41807496       1.75807380       0.00009899       1.30813692
98
Lattice="10.30128951097038 0.0 0.0 0.0 10.405909407243795 -1.7523420574216604 0.0 0.0 30.565048819605813" Properties=species:S:1:pos:R:3:forces:R:3 energy=-849.2302222808285 stress="-0.010570748623791287 0.0008529684245202907 0.0011256612362345278 0.0008529684245202907 -0.008037551763456 0.0004728511718277176 0.0011256612362345278 0.0004728511718277176 -0.01508992040580299" free_energy=-86697.66896151545 pbc="T T T"
Hf       2.82844463       1.54726914       3.39198080      -0.49402050      -1.50337107      -0.71420181
Hf      -0.03298576       0.76078113       1.34032962       7.56423487       3.05438879      -3.66932365
Hf       2.31840616       3.70909878       0.86881797      -2.50042662      -1.97660909      -1.41076945
Hf       4.94128650       4.01016015       2.99363199       0.39344897       0.47441661       0.81990629
O        1.34635794      -0.07049687       2.74246698      -2.47264328       1.15983518       0.39943193
O        3.85574176       2.37827828       1.85813630       0.53364403       1.89455413      -1.53236360
O        3.90574113       5.14625126       1.62685381      -2.38103796      -0.80665636      -1.81191708
O        1.25847455       2.76873424       2.64793926       0.59250275      -0.74604492      -1.76692226
O        3.42864000       3.38897591       4.07599466      -0.70341963       0.97706394       2.10366349
O        0.98765673       4.36210474      -0.43491838      -0.71278513       1.61060715       0.87205237
O        1.58030022       1.87117361       0.16189713      -1.06373351      -0.26715073       2.27030749
O        4.25260718       0.91610501       4.53306494       2.28192630      -1.47127830       3.06028922
Hf       2.80471252       1.33279732       8.67844599       3.18051246       4.41021685       0.09218639
Hf       0.35039836       1.06957568       6.22579240      -2.48842471       3.98088710       0.10801590
Hf       2.39464085       3.63581232       6.07425837      -1.04992952       0.20053422      -2.81141800
Hf       4.77350734       4.17269493       8.16027053      -0.15636138      -0.10675529       0.87138337
O        1.25151808       0.17873252       7.90982970       1.63679281      -1.76932675       0.27762001
O        3.96870364       2.60207174       6.89827706      -0.31331129      -2.50311779       0.71359194
O        3.75802785       4.97548266       6.61726716       1.31830641       3.28032731      -0.65804634
O        1.12766259       2.74499801       7.35791957       1.89077872      -0.55308029       1.76443369
O        3.30513062       3.40116131       9.23184981      -0.73403993      -1.36348172      -0.68324881
O        0.85556845       4.32407753       4.68384285       0.78705042       1.99113428       2.41945435
O        1.72104571       1.88202808       5.18702891       0.99102709      -0.83561496      -0.67869102
O        4.42614579       1.06260583       9.68888712      -0.58266983      -2.29374592      -1.14655286
Hf       2.71912941       6.69467414       2.56578544       2.68264482       0.07644455      -1.19729178
Hf       0.19502092       6.29259832       0.17838434       5.02839361      -1.68488427      -0.25852802
Hf       2.30560990       8.88472829      -0.25792060       1.62505521      -1.88542466       2.50001396
Hf       4.94644950       9.32524851       2.21755138      -2.88213902       1.89470480      -1.47364809
O        1.30025349       5.42244428       1.83778919      -0.60127947      -1.32083226       0.76082953
O        3.89203217       7.72924500       0.93862672       0.59273595      -0.24544908      -0.02974304
O        3.82985771      10.35304525       0.59689792      -0.59582770      -1.66115016      -1.26940582
O        1.35947148       7.83659989       1.40153885      -2.74660075       1.29216523       0.80350908
O        3.39264523       8.56652763       3.21459671      -0.60294040       0.73391394       2.07942416
O        0.94264216       9.45827318      -1.34020086      -3.61446968       2.03340219      -1.14262833
O        1.82574287       6.90174860      -0.82945056      -0.92375931       0.95323624       0.29066835
O        4.40343248       6.00233271       3.78325159      -0.40469909       0.99223576       0.99489094
Hf       2.92783147       6.87876024       7.60160585       1.38474834      -1.26169740       1.98647801
Hf       0.14635866       6.19574663       5.31348857       1.74612486      -1.09430239       1.93396092
Hf       2.31454626       8.92777841       5.07619734       2.05940452      -0.40510738      -2.92397190
Hf       5.03188016       9.34987992       7.26809233      -2.25793431      -0.62141018       0.45735194
O        1.26394453       5.45554026       7.06430398       0.94539000      -0.19214240      -0.06249658
O        4.03719073       7.77554209       6.12478723      -1.04831615      -0.47143259      -0.27206437
O        3.94579975      10.22870559       5.52882879      -1.44001266       0.23358369       1.70611181
O        1.34558019       7.93964266       6.51256485      -1.78086561       0.83780682       1.26746747
O        3.67262192       8.70537460       8.49080286      -1.01315580      -1.02541199      -0.58936678
O        0.86868508       9.69555927       3.70507510       1.50747378      -2.13014971       2.13960263
O        1.70861720       6.98847206       4.28486773      -0.81385005       0.41751759       0.70191296
O        4.27762592       5.95575440       8.87724852      -0.84426646       0.83171228      -1.04425586
Hf       7.81105681       1.39711960       3.33271027       0.55989859       5.35568630       2.81796197
Hf       5.49479024       1.07042038       1.14497494      -1.92453345       6.58749797      -0.97907480
Hf       7.60100734       3.84643248       0.74388496      -4.90623973      -2.36150529      -1.20919830
Hf      10.22188202       4.04277197       3.05550772      -3.56642270       0.19182358      -2.08319751
O        6.33636232       0.25122064       2.69790257       1.39912929      -3.10512463       3.32672210
O        8.94880437       2.42727534       1.73782960       1.26604154      -0.17230788      -0.06587141
O        9.09364771       5.22382409       1.41353574      -1.64848747      -1.11616910      -0.62351926
O        6.44028070       2.66374144       2.55098043      -0.05326657       1.08175540      -1.61853155
O        8.65198507       3.36366770       4.21473964       0.59240737       0.38441772      -1.46477933
O        5.93754790       4.41495241      -0.33594050       1.15552447       0.00430017       0.51913658
O        6.86015096       1.76224675      -0.14089589       0.63422687       2.31469604       1.97694770
O        9.51579352       0.96389166       4.56488150      -0.22631081      -2.55634554      -0.76560099
Hf       7.96116824       1.56683026       8.50319428       4.71207748       3.82016282       2.50951161
Hf       5.47892007       1.12447640       6.53323851      -1.28360963      -0.05093073      -4.59432609
Hf       7.59344001       3.75199335       5.83506243      -1.48765134      -3.79504931       0.14200974
Hf      10.15758652       4.15119304       8.25009777      -3.35249792      -0.84052988      -0.05116855
O        6.41840694       0.01691884       8.09513136       3.20644795       1.94364909      -1.14057299
O        9.11326342       2.61062181       7.09752770      -0.98600881      -2.05270757      -1.02824972
O        8.85578372       4.99697115       6.49114435       5.02973804       2.94332974       0.22402202
O        6.37756027       2.70181088       7.39673792       0.75034766       0.00920404       1.73735380
O        8.66970638       3.47162728       9.33093688      -0.75357208      -1.38965015      -0.15012594
O        6.07750225       4.38452652       4.78711019      -1.15267928       0.94040798      -0.73570266
O        6.93034086       1.58970118       5.09193977      -0.93929340       0.22632676       2.55148179
O        9.58842792       0.93770887       9.69592496      -1.37736799      -1.64654423      -1.00151513
Hf       7.89649674       6.77262708       2.65966110      -0.65593830      -2.75295806      -4.68800578
Hf       5.36149979       6.36536148       0.43100389       0.83546532      -2.65327356      -1.30842000
Hf       7.46805478       8.97122203       0.09424753      -5.41700763      -2.64371780      -4.17651360
Hf      10.01276069       9.19818210       2.25301151       2.82050557       1.81391637      -3.30822301
O        6.31344401       5.16567846       1.84315617       3.77134091       2.54205150       2.03572261
O        8.99488101       7.70752989       0.87029311       0.33510087       1.15569699       0.51716403
O        8.75310150      10.37978225       0.55372315       1.88433502      -2.91918733       0.36669922
O        6.43750141       8.04929783       1.51126510       0.30084195      -0.78756644       0.95120301
O        8.54006465       8.59073875       3.39559346       2.12427243       0.61297002      -1.74374453
O        6.06653447       9.93819996      -1.19752182       2.63716329      -8.30176918      -2.32056433
O        6.66058820       6.88825391      -0.82630146       1.40311347       2.65820905       0.26491619
O        9.34423585       6.05190045       3.69606456       1.42488403      -0.30149630       1.06860318
Hf       8.16343612       6.67250267       7.64526992      -1.67579028      -0.97165202       4.36547606
Hf       5.45778594       6.35174318       5.48157780       0.24341302      -2.73420778      -0.97650061
Hf       7.69328835       8.85760602       5.07217674      -5.85125461       1.35668372       0.46197993
Hf       9.88407698       9.35244185       6.98915710       2.89442195      -1.03147954       9.29564736
O        6.67644394       5.27652445       7.06458314      -2.65687105       1.15209050       0.92636204
O        8.84427203       7.53849706       6.09888773       4.12004035       1.87813070      -3.04103603
O        9.12548281      10.48804056       5.80986548      -4.51128975      -0.63278268      -5.74402470
O        6.49305215       7.85516385       6.62934439      -0.76338264       1.15402243       0.45760571
O        8.71547295       8.53748109       8.55456887       0.63659640       0.06777428      -3.19149210
O        6.13723325       9.47842250       3.78702907       0.46963745       0.95210418       2.32747391
O        6.93584690       7.06294833       4.23045735      -1.82059044      -0.40920572       2.72061538
O        9.50753189       5.90698706       8.81178589       0.28363125       0.94450066       0.19887277
O        5.15064476       5.20295367      14.90997930      -0.49911000      -0.00048337      -0.49613909
O        6.01373418       5.20295367      15.76441255       0.49929615       0.00017458       0.49490573
98
Lattice="10.30128951097038 0.0 0.0 0.0 10.405909407243795 -1.7523420574216604 0.0 0.0 30.565048819605813" Properties=species:S:1:pos:R:3:forces:R:3 energy=-847.2608733409215 stress="-0.013875197880894115 -0.001075162567398558 -0.0006656642710196024 -0.001075162567398558 -0.013335321203156838 -0.005210544466256888 -0.0006656642710196024 -0.005210544466256888 -0.0175854728039151" free_energy=-86695.69961257554 pbc="T T T"
Hf       2.78989103       1.46060645       3.47295305      -1.21443744       4.00226814       1.71650704
Hf       0.21468299       1.12584441       0.95146830       0.06725543      -0.65937946       2.92297508
Hf       2.42608554       3.80603907       0.62651928      -3.24424214       0.27448480       2.58513624
Hf       5.03536818       4.06931531       2.97025322      -4.27855426       2.02889787      -0.53678129
O        1.32449448       0.05301147       2.87711308      -0.24970862       1.15756258      -1.21736361
O        3.72040033       2.36724354       1.79692810       1.98833435       1.11628043      -0.27198569
O        3.73455327       5.26432567       1.52166219       0.87466667      -3.33802030      -1.50654433
O        1.24067186       2.71409620       2.24391547      -0.38838159       0.01296299       1.00372474
O        3.29821949       3.40488419       4.36840501       2.38081299      -1.41720672      -3.72127536
O        0.88782591       4.53509429      -0.42359521      -0.10179512      -0.49403464       0.04926542
O        1.54261089       1.98116872       0.10007291       1.79735743       0.11298970      -3.20758129
O        4.39181881       0.80482842       4.68523559      -2.75812855      -0.71848938      -3.81958483
Hf       2.74287800       1.48799140       8.37263882       3.87228242       0.93935383       3.93162965
Hf       0.16100194       1.09619730       6.04369239      -2.22239447       0.15937806       6.45617965
Hf       2.40986410       3.79982842       6.11099380      -3.73695163      -2.24791215      -3.43283847
Hf       4.96781747       4.00234662       8.05581545      -4.21908207       1.48482647       3.28863146
O        1.30605826       0.05744823       7.76989698       0.79601662       1.56341713       1.65933213
O        3.88955162       2.40169929       6.87541026      -0.99998738       0.77841922       1.01692889
O        3.70470219       5.18246647       6.22904658       1.99102346      -0.14973873       2.44208469
O        0.98146463       2.74735391       7.33168013       3.78318778      -1.38313754       1.83586459
O        3.51112448       3.44377877       9.46269347       0.33388886      -1.27594800      -3.65596240
O        0.90496416       4.41236370       4.84057594      -1.66891463      -0.60939104      -2.57330865
O        1.65354857       1.74856973       5.23342180       3.51944916       0.21103075      -3.04371152
O        4.29520919       0.84622312       9.67424487      -1.03051717      -0.49460646      -0.59025921
Hf       2.72087960       6.88836928       2.60337794      -0.21215098      -5.79370278       1.41888128
Hf       0.19931244       6.24402671       0.35878052       4.63848402       0.03767540      -0.75334634
Hf       2.35859149       9.11364354      -0.14163861      -3.62680095      -5.32520099      -1.48047154
Hf       4.84872014       9.24488403       2.09463640       1.81310313      -0.54982141       3.13598095
O        1.26914256       5.31727944       1.95222519      -0.04134051       0.76970473      -1.24459314
O        4.00994485       7.48652190       1.21308294       1.05064197       3.97928119      -2.89360871
O        3.73548451      10.38278404       0.51374694       2.12048802      -0.94094560       0.61537246
O        1.42007705       8.03777790       1.49861615      -0.48020314      -0.32638535      -0.97045620
O        3.31905179       8.52941827       3.41963255       2.75838900       3.50930976      -0.99365758
O        0.94789788       9.51936292      -1.37720618      -0.52858770       2.63393270       0.72101395
O        1.78118876       7.03705604      -0.88635282      -0.80740481       0.86412463       2.26608059
O        4.32139610       5.96724755       3.83958110      -1.52747413       0.56528943      -2.92894030
Hf       2.84219273       6.67918306       7.58229814       1.74917419       0.53109761       1.83432964
Hf       0.17115077       6.39182138       5.41938995      -0.14609111      -2.61094343       0.38980315
Hf       2.35249518       8.93661485       5.12603291       0.09865297      -2.33148689       1.30023052
Hf       4.94376190       9.22402392       7.34242437      -2.21314749       2.71598251       0.56546812
O        1.25813975       5.28864186       6.88582795       0.39915528       0.85529058       3.24047521
O        3.97117389       7.57807770       6.19352361      -0.28187518       1.54095751      -1.52282404
O        3.82875032      10.26182836       5.93526307      -0.69752820      -1.11246414      -3.81947325
O        1.15233933       7.72998052       6.61605160       1.48060627       3.19111440       0.56135538
O        3.49696433       8.52578809       8.40328722      -0.81228528      -0.74577135       0.26325782
O        0.86961941       9.54900797       3.93006247      -0.83659352      -0.76643480      -2.40819704
O        1.71259041       6.84583835       4.31764952       0.53574899       1.82112625      -0.10819434
O        4.30755426       5.88198480       8.68636666      -0.28709426      -0.28448922      -0.80745778
Hf       7.89713233       1.39465347       3.48306995       1.11090297       2.76935476       0.12404056
Hf       5.44994975       1.05560404       1.36555748       0.28437147       2.33016123      -5.84435840
Hf       7.52261968       3.76336186       0.76164026      -1.17764058      -2.34650753       0.91992014
Hf      10.05600551       4.16220306       2.95799159       2.12510367      -0.75781312       2.24165229
O        6.55971900       0.19692769       2.58257243       0.04372881      -2.64840878       3.84574761
O        8.93533234       2.38632668       1.75662842       1.55462293      -0.29803457      -0.26285030
O        8.86666807       5.20832992       1.58584335       1.81764215      -2.26285129      -3.65104671
O        6.44436825       2.70754046       2.31215739      -0.76936405       0.82771241       1.61063878
O        8.58502875       3.44148776       4.15839159      -0.04205476      -0.72164207      -1.19889101
O        6.07491972       4.30312676      -0.25221471      -2.67580440       2.89412319      -1.82664487
O        6.80663267       1.97213037       0.07709485      -0.49342761      -1.85652700       0.21813548
O        9.37891720       0.65789288       4.57421241      -0.90886826      -0.18578046      -1.94129602
Hf       8.04086107       1.39245003       8.62058674       0.22295167       2.44518673      -1.70680781
Hf       5.34053873       1.10471853       6.29371086       4.15063519      -0.85282541       3.08935297
Hf       7.52728204       3.99013135       5.71567152      -0.31359591      -5.85453405       1.78115254
Hf      10.06057310       4.07142501       8.15049770      -5.03984094       1.02538088       0.97007285
O        6.50547241      -0.00187689       8.05023834       0.18924425       1.46146209      -0.51180380
O        9.00860232       2.53656378       6.96910358      -0.95784674      -0.33452418      -0.92512740
O        8.87356993       5.15310676       6.28130605       1.17347411       1.94883243       1.32167789
O        6.38747835       2.76403994       7.46360153       0.40345082      -0.27292877      -0.75504918
O        8.46083434       3.24572824       9.33794588       1.25414941       0.18077863      -0.90591123
O        5.82472303       4.47238210       4.66947358       3.54659513      -4.59981566       0.75772107
O        6.86491840       1.88771748       5.09588516      -0.82333485      -0.29813458       0.23697241
O        9.43580401       0.72469057       9.69817167       1.33974272       0.26694221       1.17909223
Hf       7.93533363       6.78711482       2.49101044      -0.05637581      -1.99204882       2.69031236
Hf       5.49231484       6.33281662       0.31908965       1.47394454      -1.89924228       1.12710683
Hf       7.55254492       8.92644645      -0.18921306      -3.95524858      -1.57071700      -0.22662886
Hf      10.22291627       9.25482581       2.04444851      -2.58037919      -0.36032314       2.52340483
O        6.53336418       5.38599626       1.86927199      -2.11449555      -1.58181671       0.48740788