LAMMPS DATA file

64 atoms
0 bonds
0 angles
0 dihedrals
0 impropers

1 atom types
0 bond types
0 angle types

0.0 12.990503 xlo xhi
0.0 11.250148 ylo yhi
0.0 15.845291 zlo zhi

Masses

1 73

Atoms

1 1 10.59872 10.5966 0.05505 0 0 0
2 1 2.72054 2.66769 2.56793 0 0 0
3 1 1.2783 2.60895 0.03547 0 0 0
4 1 3.95508 2.65628 10.5551 0 0 0
5 1 0.03293 1.39934 2.6967 0 0 0
6 1 10.5651 4.05678 2.65596 0 0 0
7 1 2.60171 10.52714 1.285 0 0 0
8 1 2.68709 10.58122 3.91851 0 0 0
9 1 5.31795 0.08026 0.03906 0 0 0
10 1 8.02486 2.64122 2.59891 0 0 0
11 1 6.60369 2.73118 0.06843 0 0 0
12 1 9.30745 2.57138 10.58055 0 0 0
13 1 5.35248 1.38217 2.58572 0 0 0
14 1 5.27678 4.05493 2.58839 0 0 0
15 1 7.97704 10.56983 1.33943 0 0 0
16 1 7.9205 10.58925 4.02197 0 0 0
17 1 10.58688 5.37691 0.04598 0 0 0
18 1 2.56928 7.98994 2.68334 0 0 0
19 1 1.26784 7.95054 0.01116 0 0 0
20 1 3.9146 8.01616 10.55414 0 0 0
21 1 10.54844 6.60413 2.59023 0 0 0
22 1 10.5757 9.25815 2.63489 0 0 0
23 1 2.66105 5.2801 1.30191 0 0 0
24 1 2.6432 5.35885 3.92681 0 0 0
25 1 10.53608 10.55781 5.26416 0 0 0
26 1 2.60772 2.73015 7.98088 0 0 0
27 1 1.24268 2.58441 5.28609 0 0 0
28 1 3.99146 2.5757 5.25407 0 0 0
29 1 10.51746 1.40756 8.00795 0 0 0
30 1 0.00974 3.9413 7.96949 0 0 0
31 1 2.7025 10.58938 6.62226 0 0 0
32 1 2.67552 0.00093 9.32012 0 0 0
33 1 5.21931 5.28624 10.52268 0 0 0
34 1 7.92372 7.92335 2.69137 0 0 0
35 1 6.67129 7.91947 0.00781 0 0 0
36 1 9.22152 8.02659 0.00287 0 0 0
37 1 5.33288 6.56827 2.67559 0 0 0
38 1 5.21843 9.3313 2.61368 0 0 0
39 1 7.93465 5.34206 1.38987 0 0 0
40 1 7.94771 5.35777 3.99603 0 0 0
41 1 5.28258 10.54181 5.27443 0 0 0
42 1 7.87019 2.58685 7.88448 0 0 0
43 1 6.61351 2.69961 5.33299 0 0 0
44 1 9.20963 2.61413 5.29428 0 0 0
45 1 5.381 1.3824 7.94181 0 0 0
46 1 5.28467 4.01816 7.99502 0 0 0
47 1 8.00243 10.5584 6.55969 0 0 0
48 1 7.92724 0.03497 9.30326 0 0 0
49 1 10.55391 5.32768 5.23195 0 0 0
50 1 2.64406 7.95567 7.93345 0 0 0
51 1 1.2986 7.9027 5.33624 0 0 0
52 1 4.04604 7.87659 5.36207 0 0 0
53 1 0.04337 6.69689 8.01066 0 0 0
54 1 10.54014 9.26136 7.89857 0 0 0
55 1 2.68344 5.29148 6.55058 0 0 0
56 1 2.61535 5.26646 9.22004 0 0 0
57 1 5.22677 5.33996 5.32711 0 0 0
58 1 7.93781 8.02504 7.94133 0 0 0
59 1 6.58943 7.89688 5.28857 0 0 0
60 1 9.26138 8.02661 5.25779 0 0 0
61 1 5.27411 6.62462 8.02195 0 0 0
62 1 5.30985 9.30627 7.88256 0 0 0
63 1 7.99384 5.30652 6.67382 0 0 0
64 1 7.89346 5.23521 9.29012 0 0 0
