LAMMPS DATA file

64 atoms
0 bonds
0 angles
0 dihedrals
0 impropers

1 atom types
0 bond types
0 angle types

0.0 12.990503 xlo xhi
0.0 11.250148 ylo yhi
0.0 15.845291 zlo zhi

Masses

1 73

Atoms

1 1 0.00046 10.54735 10.58932 0 0 0
2 1 2.73129 2.71027 2.64805 0 0 0
3 1 1.30416 2.70676 0.05081 0 0 0
4 1 3.9224 2.56802 0.05914 0 0 0
5 1 10.52754 1.32714 2.64946 0 0 0
6 1 10.58917 3.98207 2.62548 0 0 0
7 1 2.64792 0.02452 1.38081 0 0 0
8 1 2.59488 0.05512 3.95199 0 0 0
9 1 5.22138 10.52799 0.03746 0 0 0
10 1 7.88634 2.63138 2.61996 0 0 0
11 1 6.69452 2.7219 0.06773 0 0 0
12 1 9.21373 2.71014 0.05862 0 0 0
13 1 5.3281 1.39418 2.60417 0 0 0
14 1 5.2637 3.95414 2.69271 0 0 0
15 1 7.90795 0.06254 1.39383 0 0 0
16 1 7.94511 10.51799 3.98105 0 0 0
17 1 10.57577 5.37732 10.54307 0 0 0
18 1 2.70528 7.92008 2.71672 0 0 0
19 1 1.40108 7.96156 10.56262 0 0 0
20 1 3.94259 7.88815 10.51865 0 0 0
21 1 0.05295 6.61799 2.66959 0 0 0
22 1 0.0041 9.32626 2.60831 0 0 0
23 1 2.66819 5.248 1.34131 0 0 0
24 1 2.57134 5.28818 3.89302 0 0 0
25 1 0.08271 0.0036 5.29844 0 0 0
26 1 2.56753 2.70781 8.0214 0 0 0
27 1 1.30891 2.64281 5.34837 0 0 0
28 1 3.96187 2.73119 5.27973 0 0 0
29 1 1.0e-5 1.31854 7.9193 0 0 0
30 1 10.58062 3.94546 7.96883 0 0 0
31 1 2.60743 10.5971 6.59487 0 0 0
32 1 2.59982 0.05852 9.25312 0 0 0
33 1 5.343 5.33735 10.58109 0 0 0
34 1 8.0183 7.97031 2.57959 0 0 0
35 1 6.56415 8.01596 10.54595 0 0 0
36 1 9.3142 8.00708 0.07335 0 0 0
37 1 5.28371 6.62455 2.60926 0 0 0
38 1 5.365 9.35513 2.65232 0 0 0
39 1 7.99421 5.27285 1.26512 0 0 0
40 1 7.93677 5.32858 3.96514 0 0 0
41 1 5.29831 0.06384 5.34991 0 0 0
42 1 7.98101 2.63404 7.9256 0 0 0
43 1 6.68687 2.58375 5.27465 0 0 0
44 1 9.31724 2.59345 5.36746 0 0 0
45 1 5.30469 1.39236 7.90055 0 0 0
46 1 5.36637 3.96474 7.94588 0 0 0
47 1 7.96852 10.54416 6.59542 0 0 0
48 1 8.01553 0.03504 9.33832 0 0 0
49 1 10.53751 5.2766 5.33019 0 0 0
50 1 2.67185 7.99879 7.94992 0 0 0
51 1 1.32425 7.97625 5.27971 0 0 0
52 1 3.99685 7.99185 5.33585 0 0 0
53 1 0.00789 6.57979 7.98241 0 0 0
54 1 10.56258 9.24146 7.92821 0 0 0
55 1 2.62183 5.25654 6.57113 0 0 0
56 1 2.62673 5.24695 9.20881 0 0 0
57 1 5.2818 5.28462 5.32566 0 0 0
58 1 7.95127 7.97098 7.89566 0 0 0
59 1 6.69889 8.00506 5.30113 0 0 0
60 1 9.22006 8.02217 5.33119 0 0 0
61 1 5.3507 6.64908 7.93434 0 0 0
62 1 5.22906 9.26778 7.99824 0 0 0
63 1 7.96263 5.26515 6.66322 0 0 0
64 1 8.00683 5.33642 9.24793 0 0 0
