LAMMPS DATA file

64 atoms
0 bonds
0 angles
0 dihedrals
0 impropers

1 atom types
0 bond types
0 angle types

0.0 12.990503 xlo xhi
0.0 11.250148 ylo yhi
0.0 15.845291 zlo zhi

Masses

1 73

Atoms

1 1 10.58466 10.52281 10.54428 0 0 0
2 1 2.58906 2.62515 2.58331 0 0 0
3 1 1.33407 2.72467 0.03386 0 0 0
4 1 3.90797 2.72086 10.53991 0 0 0
5 1 0.07897 1.2643 2.65645 0 0 0
6 1 0.02729 3.96468 2.62566 0 0 0
7 1 2.71828 0.03582 1.37493 0 0 0
8 1 2.71013 0.01388 3.94029 0 0 0
9 1 5.24382 0.05221 10.59611 0 0 0
10 1 8.00676 2.68277 2.72931 0 0 0
11 1 6.67012 2.581 0.05294 0 0 0
12 1 9.2906 2.70214 10.5277 0 0 0
13 1 5.31566 1.36303 2.63231 0 0 0
14 1 5.36545 3.97557 2.63811 0 0 0
15 1 7.9635 0.07881 1.30941 0 0 0
16 1 8.01171 0.06526 3.99574 0 0 0
17 1 10.5812 5.22205 0.06058 0 0 0
18 1 2.58751 8.02506 2.67969 0 0 0
19 1 1.32816 7.92066 10.55287 0 0 0
20 1 3.98668 7.91992 10.56445 0 0 0
21 1 0.00065 6.67904 2.65936 0 0 0
22 1 0.05141 9.2904 2.64974 0 0 0
23 1 2.65941 5.21716 1.36289 0 0 0
24 1 2.67774 5.34503 4.02694 0 0 0
25 1 0.07746 0.06322 5.35824 0 0 0
26 1 2.67942 2.71807 8.01719 0 0 0
27 1 1.37014 2.70616 5.31634 0 0 0
28 1 4.04242 2.65384 5.28532 0 0 0
29 1 10.59566 1.39908 7.95465 0 0 0
30 1 10.51853 3.8922 7.91939 0 0 0
31 1 2.65129 0.0155 6.54214 0 0 0
32 1 2.68757 10.53742 9.30663 0 0 0
33 1 5.29366 5.33327 10.53757 0 0 0
34 1 7.98799 8.02663 2.73107 0 0 0
35 1 6.6836 7.95804 10.58871 0 0 0
36 1 9.35116 7.96667 0.00673 0 0 0
37 1 5.25103 6.63708 2.69902 0 0 0
38 1 5.25134 9.28648 2.56753 0 0 0
39 1 7.99616 5.36815 1.3789 0 0 0
40 1 8.00478 5.33099 4.04177 0 0 0
41 1 5.22309 0.05914 5.36259 0 0 0
42 1 8.03289 2.6841 7.99696 0 0 0
43 1 6.70134 2.63641 5.29151 0 0 0
44 1 9.34008 2.57975 5.27834 0 0 0
45 1 5.33316 1.27506 7.87414 0 0 0
46 1 5.282 3.94794 7.95331 0 0 0
47 1 7.97216 0.0105 6.56218 0 0 0
48 1 7.98286 10.57054 9.20843 0 0 0
49 1 10.56331 5.32515 5.33591 0 0 0
50 1 2.56725 7.87047 7.92346 0 0 0
51 1 1.36329 7.87424 5.25876 0 0 0
52 1 3.93049 7.97524 5.31529 0 0 0
53 1 10.56491 6.65054 7.9509 0 0 0
54 1 10.52371 9.29522 7.88036 0 0 0
55 1 2.71757 5.32353 6.61689 0 0 0
56 1 2.58315 5.3638 9.27005 0 0 0
57 1 5.33722 5.23801 5.24924 0 0 0
58 1 8.00365 8.00131 7.92453 0 0 0
59 1 6.57048 8.03185 5.31737 0 0 0
60 1 9.2991 7.92465 5.23581 0 0 0
61 1 5.29905 6.5928 8.01852 0 0 0
62 1 5.2848 9.23686 8.0324 0 0 0
63 1 7.94377 5.22663 6.66616 0 0 0
64 1 8.02399 5.3012 9.33589 0 0 0
