LAMMPS DATA file

64 atoms
0 bonds
0 angles
0 dihedrals
0 impropers

1 atom types
0 bond types
0 angle types

0.0 12.990503 xlo xhi
0.0 11.250148 ylo yhi
0.0 15.845291 zlo zhi

Masses

1 73

Atoms

1 1 10.53107 10.5509 0.0015 0 0 0
2 1 2.70215 2.61155 2.65638 0 0 0
3 1 1.39743 2.61545 0.05847 0 0 0
4 1 3.97713 2.68268 10.5346 0 0 0
5 1 0.03222 1.38317 2.60891 0 0 0
6 1 10.56764 3.92107 2.7266 0 0 0
7 1 2.59022 10.55975 1.32456 0 0 0
8 1 2.70858 0.00916 4.05153 0 0 0
9 1 5.26413 10.53793 0.03804 0 0 0
10 1 7.92699 2.58218 2.67357 0 0 0
11 1 6.56938 2.58335 0.00915 0 0 0
12 1 9.21553 2.70158 0.00339 0 0 0
13 1 5.29644 1.25773 2.66315 0 0 0
14 1 5.25049 4.05699 2.72857 0 0 0
15 1 7.95797 0.00795 1.26652 0 0 0
16 1 7.95876 0.0029 3.97425 0 0 0
17 1 0.00111 5.29169 0.0101 0 0 0
18 1 2.62824 7.99165 2.57985 0 0 0
19 1 1.27056 8.03072 0.02474 0 0 0
20 1 3.95298 7.86756 0.04116 0 0 0
21 1 10.52695 6.6817 2.6853 0 0 0
22 1 0.02498 9.27815 2.68712 0 0 0
23 1 2.65962 5.24127 1.35865 0 0 0
24 1 2.68315 5.34774 4.00482 0 0 0
25 1 10.59249 0.03152 5.33264 0 0 0
26 1 2.58832 2.58393 7.94631 0 0 0
27 1 1.37297 2.61641 5.29619 0 0 0
28 1 3.95207 2.62642 5.27401 0 0 0
29 1 0.01362 1.29568 7.93105 0 0 0
30 1 0.06717 3.99538 7.88147 0 0 0
31 1 2.72677 10.57217 6.60708 0 0 0
32 1 2.713 10.58575 9.24417 0 0 0
33 1 5.30308 5.35945 0.05831 0 0 0
34 1 7.87019 7.94183 2.57359 0 0 0
35 1 6.65928 7.9017 0.0785 0 0 0
36 1 9.22504 7.86881 10.58464 0 0 0
37 1 5.29923 6.68288 2.66667 0 0 0
38 1 5.34057 9.3156 2.71909 0 0 0
39 1 7.9974 5.33778 1.31662 0 0 0
40 1 8.0053 5.25623 3.92597 0 0 0
41 1 5.25104 0.03317 5.26596 0 0 0
42 1 7.98045 2.60832 7.99115 0 0 0
43 1 6.70353 2.60779 5.33602 0 0 0
44 1 9.2746 2.58651 5.33229 0 0 0
45 1 5.38008 1.39809 7.98274 0 0 0
46 1 5.33862 3.99447 7.94033 0 0 0
47 1 7.95961 0.05884 6.68706 0 0 0
48 1 7.95876 0.02794 9.26141 0 0 0
49 1 0.06343 5.2606 5.22321 0 0 0
50 1 2.68463 7.97169 7.9776 0 0 0
51 1 1.29864 7.91228 5.24043 0 0 0
52 1 3.95071 8.01668 5.34254 0 0 0
53 1 10.52651 6.66919 7.95196 0 0 0
54 1 10.55688 9.28857 7.96148 0 0 0
55 1 2.70803 5.32339 6.70382 0 0 0
56 1 2.57492 5.22962 9.24619 0 0 0
57 1 5.22267 5.3038 5.33156 0 0 0
58 1 7.98999 7.90061 7.96163 0 0 0
59 1 6.68533 8.02176 5.30974 0 0 0
60 1 9.34825 7.99677 5.29878 0 0 0
61 1 5.33163 6.57634 7.98884 0 0 0
62 1 5.29614 9.34403 7.95803 0 0 0
63 1 8.00726 5.27369 6.70227 0 0 0
64 1 7.97483 5.326 9.24028 0 0 0
