LAMMPS DATA file

64 atoms
0 bonds
0 angles
0 dihedrals
0 impropers

1 atom types
0 bond types
0 angle types

0.0 12.990503 xlo xhi
0.0 11.250148 ylo yhi
0.0 15.845291 zlo zhi

Masses

1 73

Atoms

1 1 10.54497 10.54551 10.5956 0 0 0
2 1 2.6058 2.59577 2.66276 0 0 0
3 1 1.29338 2.62737 0.06659 0 0 0
4 1 3.97859 2.60074 0.05226 0 0 0
5 1 0.06826 1.26322 2.67108 0 0 0
6 1 0.03489 4.006 2.58088 0 0 0
7 1 2.60404 0.03209 1.27573 0 0 0
8 1 2.61384 0.03978 4.00017 0 0 0
9 1 5.26731 10.53909 0.0525 0 0 0
10 1 8.00375 2.64902 2.69207 0 0 0
11 1 6.64426 2.6613 10.54 0 0 0
12 1 9.33824 2.64457 0.03106 0 0 0
13 1 5.3522 1.2665 2.5671 0 0 0
14 1 5.27655 4.04903 2.65011 0 0 0
15 1 7.9997 10.54384 1.3323 0 0 0
16 1 7.97961 10.59814 4.02363 0 0 0
17 1 0.07703 5.36114 0.02699 0 0 0
18 1 2.6646 7.93725 2.60955 0 0 0
19 1 1.40379 7.96668 10.52251 0 0 0
20 1 3.99035 7.99423 10.59771 0 0 0
21 1 0.04355 6.56889 2.62727 0 0 0
22 1 0.00703 9.28757 2.68364 0 0 0
23 1 2.56957 5.34141 1.33893 0 0 0
24 1 2.72447 5.25375 4.04037 0 0 0
25 1 10.53684 10.5759 5.2221 0 0 0
26 1 2.66913 2.7096 7.94723 0 0 0
27 1 1.35438 2.68364 5.23358 0 0 0
28 1 3.92914 2.57652 5.21831 0 0 0
29 1 0.08152 1.31737 7.90103 0 0 0
30 1 0.01596 3.94268 7.99393 0 0 0
31 1 2.6785 10.52779 6.63557 0 0 0
32 1 2.57563 10.5398 9.20066 0 0 0
33 1 5.28026 5.2908 10.53874 0 0 0
34 1 8.02116 8.00301 2.56791 0 0 0
35 1 6.56126 7.9104 0.04457 0 0 0
36 1 9.26485 7.95508 10.58594 0 0 0
37 1 5.26103 6.62842 2.63265 0 0 0
38 1 5.28955 9.23968 2.5673 0 0 0
39 1 8.00221 5.33276 1.34132 0 0 0
40 1 7.91864 5.28423 3.97891 0 0 0
41 1 5.27037 0.01177 5.31967 0 0 0
42 1 7.97577 2.58846 7.90284 0 0 0
43 1 6.67111 2.70945 5.31433 0 0 0
44 1 9.29025 2.58105 5.29066 0 0 0
45 1 5.2532 1.26795 7.91799 0 0 0
46 1 5.32703 4.04747 7.87622 0 0 0
47 1 7.8991 10.56576 6.68405 0 0 0
48 1 8.01539 10.54873 9.32177 0 0 0
49 1 10.59055 5.23373 5.29112 0 0 0
50 1 2.7178 8.02017 8.01996 0 0 0
51 1 1.28755 7.95382 5.35947 0 0 0
52 1 3.98149 8.00712 5.27935 0 0 0
53 1 0.04771 6.7013 8.02541 0 0 0
54 1 10.53454 9.27538 7.94586 0 0 0
55 1 2.60384 5.37826 6.65237 0 0 0
56 1 2.65026 5.25782 9.27591 0 0 0
57 1 5.30975 5.33548 5.25863 0 0 0
58 1 7.98152 7.93147 7.94727 0 0 0
59 1 6.58336 7.99956 5.3353 0 0 0
60 1 9.20518 8.00165 5.34211 0 0 0
61 1 5.28813 6.67781 8.01704 0 0 0
62 1 5.2968 9.20687 7.96818 0 0 0
63 1 7.90382 5.25794 6.62358 0 0 0
64 1 8.00072 5.28621 9.26356 0 0 0
